Crsytal with exposed surface: 001 and interactomic distance: 1.12246

7921 atoms
1 atom types
-49.38833012561307 49.38833012561176 xlo xhi
-49.388330125613656 49.38833012561117 ylo yhi
0.0 0.0 zlo zhi

Atoms

0 1000000 1 -49.388330 -49.388330 0.000000 0 0 0
0 1000000 1 -48.265868 -49.388330 0.000000 0 0 0
0 1000000 1 -47.143406 -49.388330 0.000000 0 0 0
0 1000000 1 -46.020944 -49.388330 0.000000 0 0 0
0 1000000 1 -44.898482 -49.388330 0.000000 0 0 0
0 1000000 1 -43.776020 -49.388330 0.000000 0 0 0
0 1000000 1 -42.653558 -49.388330 0.000000 0 0 0
0 1000000 1 -41.531096 -49.388330 0.000000 0 0 0
0 1000000 1 -40.408634 -49.388330 0.000000 0 0 0
0 1000000 1 -39.286172 -49.388330 0.000000 0 0 0
0 1000000 1 -38.163710 -49.388330 0.000000 0 0 0
0 1000000 1 -37.041248 -49.388330 0.000000 0 0 0
0 1000000 1 -35.918786 -49.388330 0.000000 0 0 0
0 1000000 1 -34.796323 -49.388330 0.000000 0 0 0
0 1000000 1 -33.673861 -49.388330 0.000000 0 0 0
0 1000000 1 -32.551399 -49.388330 0.000000 0 0 0
0 1000000 1 -31.428937 -49.388330 0.000000 0 0 0
0 1000000 1 -30.306475 -49.388330 0.000000 0 0 0
0 1000000 1 -29.184013 -49.388330 0.000000 0 0 0
0 1000000 1 -28.061551 -49.388330 0.000000 0 0 0
0 1000000 1 -26.939089 -49.388330 0.000000 0 0 0
0 1000000 1 -25.816627 -49.388330 0.000000 0 0 0
0 1000000 1 -24.694165 -49.388330 0.000000 0 0 0
0 1000000 1 -23.571703 -49.388330 0.000000 0 0 0
0 1000000 1 -22.449241 -49.388330 0.000000 0 0 0
0 1000000 1 -21.326779 -49.388330 0.000000 0 0 0
0 1000000 1 -20.204317 -49.388330 0.000000 0 0 0
0 1000000 1 -19.081855 -49.388330 0.000000 0 0 0
0 1000000 1 -17.959393 -49.388330 0.000000 0 0 0
0 1000000 1 -16.836931 -49.388330 0.000000 0 0 0
0 1000000 1 -15.714469 -49.388330 0.000000 0 0 0
0 1000000 1 -14.592007 -49.388330 0.000000 0 0 0
0 1000000 1 -13.469545 -49.388330 0.000000 0 0 0
0 1000000 1 -12.347083 -49.388330 0.000000 0 0 0
0 1000000 1 -11.224620 -49.388330 0.000000 0 0 0
0 1000000 1 -10.102158 -49.388330 0.000000 0 0 0
0 1000000 1 -8.979696 -49.388330 0.000000 0 0 0
0 1000000 1 -7.857234 -49.388330 0.000000 0 0 0
0 1000000 1 -6.734772 -49.388330 0.000000 0 0 0
0 1000000 1 -5.612310 -49.388330 0.000000 0 0 0
0 1000000 1 -4.489848 -49.388330 0.000000 0 0 0
0 1000000 1 -3.367386 -49.388330 0.000000 0 0 0
0 1000000 1 -2.244924 -49.388330 0.000000 0 0 0
0 1000000 1 -1.122462 -49.388330 0.000000 0 0 0
0 1000000 1 -0.000000 -49.388330 0.000000 0 0 0
0 1000000 1 1.122462 -49.388330 0.000000 0 0 0
0 1000000 1 2.244924 -49.388330 0.000000 0 0 0
0 1000000 1 3.367386 -49.388330 0.000000 0 0 0
0 1000000 1 4.489848 -49.388330 0.000000 0 0 0
0 1000000 1 5.612310 -49.388330 0.000000 0 0 0
0 1000000 1 6.734772 -49.388330 0.000000 0 0 0
0 1000000 1 7.857234 -49.388330 0.000000 0 0 0
0 1000000 1 8.979696 -49.388330 0.000000 0 0 0
0 1000000 1 10.102158 -49.388330 0.000000 0 0 0
0 1000000 1 11.224620 -49.388330 0.000000 0 0 0
0 1000000 1 12.347083 -49.388330 0.000000 0 0 0
0 1000000 1 13.469545 -49.388330 0.000000 0 0 0
0 1000000 1 14.592007 -49.388330 0.000000 0 0 0
0 1000000 1 15.714469 -49.388330 0.000000 0 0 0
0 1000000 1 16.836931 -49.388330 0.000000 0 0 0
0 1000000 1 17.959393 -49.388330 0.000000 0 0 0
0 1000000 1 19.081855 -49.388330 0.000000 0 0 0
0 1000000 1 20.204317 -49.388330 0.000000 0 0 0
0 1000000 1 21.326779 -49.388330 0.000000 0 0 0
0 1000000 1 22.449241 -49.388330 0.000000 0 0 0
0 1000000 1 23.571703 -49.388330 0.000000 0 0 0
0 1000000 1 24.694165 -49.388330 0.000000 0 0 0
0 1000000 1 25.816627 -49.388330 0.000000 0 0 0
0 1000000 1 26.939089 -49.388330 0.000000 0 0 0
0 1000000 1 28.061551 -49.388330 0.000000 0 0 0
0 1000000 1 29.184013 -49.388330 0.000000 0 0 0
0 1000000 1 30.306475 -49.388330 0.000000 0 0 0
0 1000000 1 31.428937 -49.388330 0.000000 0 0 0
0 1000000 1 32.551399 -49.388330 0.000000 0 0 0
0 1000000 1 33.673861 -49.388330 0.000000 0 0 0
0 1000000 1 34.796323 -49.388330 0.000000 0 0 0
0 1000000 1 35.918786 -49.388330 0.000000 0 0 0
0 1000000 1 37.041248 -49.388330 0.000000 0 0 0
0 1000000 1 38.163710 -49.388330 0.000000 0 0 0
0 1000000 1 39.286172 -49.388330 0.000000 0 0 0
0 1000000 1 40.408634 -49.388330 0.000000 0 0 0
0 1000000 1 41.531096 -49.388330 0.000000 0 0 0
0 1000000 1 42.653558 -49.388330 0.000000 0 0 0
0 1000000 1 43.776020 -49.388330 0.000000 0 0 0
0 1000000 1 44.898482 -49.388330 0.000000 0 0 0
0 1000000 1 46.020944 -49.388330 0.000000 0 0 0
0 1000000 1 47.143406 -49.388330 0.000000 0 0 0
0 1000000 1 48.265868 -49.388330 0.000000 0 0 0
0 1000000 1 49.388330 -49.388330 0.000000 0 0 0
0 1000000 1 -49.388330 -48.265868 0.000000 0 0 0
0 1000000 1 -48.265868 -48.265868 0.000000 0 0 0
0 1000000 1 -47.143406 -48.265868 0.000000 0 0 0
0 1000000 1 -46.020944 -48.265868 0.000000 0 0 0
0 1000000 1 -44.898482 -48.265868 0.000000 0 0 0
0 1000000 1 -43.776020 -48.265868 0.000000 0 0 0
0 1000000 1 -42.653558 -48.265868 0.000000 0 0 0
0 1000000 1 -41.531096 -48.265868 0.000000 0 0 0
0 1000000 1 -40.408634 -48.265868 0.000000 0 0 0
0 1000000 1 -39.286172 -48.265868 0.000000 0 0 0
0 1000000 1 -38.163710 -48.265868 0.000000 0 0 0
0 1000000 1 -37.041248 -48.265868 0.000000 0 0 0
0 1000000 1 -35.918786 -48.265868 0.000000 0 0 0
0 1000000 1 -34.796323 -48.265868 0.000000 0 0 0
0 1000000 1 -33.673861 -48.265868 0.000000 0 0 0
0 1000000 1 -32.551399 -48.265868 0.000000 0 0 0
0 1000000 1 -31.428937 -48.265868 0.000000 0 0 0
0 1000000 1 -30.306475 -48.265868 0.000000 0 0 0
0 1000000 1 -29.184013 -48.265868 0.000000 0 0 0
0 1000000 1 -28.061551 -48.265868 0.000000 0 0 0
0 1000000 1 -26.939089 -48.265868 0.000000 0 0 0
0 1000000 1 -25.816627 -48.265868 0.000000 0 0 0
0 1000000 1 -24.694165 -48.265868 0.000000 0 0 0
0 1000000 1 -23.571703 -48.265868 0.000000 0 0 0
0 1000000 1 -22.449241 -48.265868 0.000000 0 0 0
0 1000000 1 -21.326779 -48.265868 0.000000 0 0 0
0 1000000 1 -20.204317 -48.265868 0.000000 0 0 0
0 1000000 1 -19.081855 -48.265868 0.000000 0 0 0
0 1000000 1 -17.959393 -48.265868 0.000000 0 0 0
0 1000000 1 -16.836931 -48.265868 0.000000 0 0 0
0 1000000 1 -15.714469 -48.265868 0.000000 0 0 0
0 1000000 1 -14.592007 -48.265868 0.000000 0 0 0
0 1000000 1 -13.469545 -48.265868 0.000000 0 0 0
0 1000000 1 -12.347083 -48.265868 0.000000 0 0 0
0 1000000 1 -11.224620 -48.265868 0.000000 0 0 0
0 1000000 1 -10.102158 -48.265868 0.000000 0 0 0
0 1000000 1 -8.979696 -48.265868 0.000000 0 0 0
0 1000000 1 -7.857234 -48.265868 0.000000 0 0 0
0 1000000 1 -6.734772 -48.265868 0.000000 0 0 0
0 1000000 1 -5.612310 -48.265868 0.000000 0 0 0
0 1000000 1 -4.489848 -48.265868 0.000000 0 0 0
0 1000000 1 -3.367386 -48.265868 0.000000 0 0 0
0 1000000 1 -2.244924 -48.265868 0.000000 0 0 0
0 1000000 1 -1.122462 -48.265868 0.000000 0 0 0
0 1000000 1 -0.000000 -48.265868 0.000000 0 0 0
0 1000000 1 1.122462 -48.265868 0.000000 0 0 0
0 1000000 1 2.244924 -48.265868 0.000000 0 0 0
0 1000000 1 3.367386 -48.265868 0.000000 0 0 0
0 1000000 1 4.489848 -48.265868 0.000000 0 0 0
0 1000000 1 5.612310 -48.265868 0.000000 0 0 0
0 1000000 1 6.734772 -48.265868 0.000000 0 0 0
0 1000000 1 7.857234 -48.265868 0.000000 0 0 0
0 1000000 1 8.979696 -48.265868 0.000000 0 0 0
0 1000000 1 10.102158 -48.265868 0.000000 0 0 0
0 1000000 1 11.224620 -48.265868 0.000000 0 0 0
0 1000000 1 12.347083 -48.265868 0.000000 0 0 0
0 1000000 1 13.469545 -48.265868 0.000000 0 0 0
0 1000000 1 14.592007 -48.265868 0.000000 0 0 0
0 1000000 1 15.714469 -48.265868 0.000000 0 0 0
0 1000000 1 16.836931 -48.265868 0.000000 0 0 0
0 1000000 1 17.959393 -48.265868 0.000000 0 0 0
0 1000000 1 19.081855 -48.265868 0.000000 0 0 0
0 1000000 1 20.204317 -48.265868 0.000000 0 0 0
0 1000000 1 21.326779 -48.265868 0.000000 0 0 0
0 1000000 1 22.449241 -48.265868 0.000000 0 0 0
0 1000000 1 23.571703 -48.265868 0.000000 0 0 0
0 1000000 1 24.694165 -48.265868 0.000000 0 0 0
0 1000000 1 25.816627 -48.265868 0.000000 0 0 0
0 1000000 1 26.939089 -48.265868 0.000000 0 0 0
0 1000000 1 28.061551 -48.265868 0.000000 0 0 0
0 1000000 1 29.184013 -48.265868 0.000000 0 0 0
0 1000000 1 30.306475 -48.265868 0.000000 0 0 0
0 1000000 1 31.428937 -48.265868 0.000000 0 0 0
0 1000000 1 32.551399 -48.265868 0.000000 0 0 0
0 1000000 1 33.673861 -48.265868 0.000000 0 0 0
0 1000000 1 34.796323 -48.265868 0.000000 0 0 0
0 1000000 1 35.918786 -48.265868 0.000000 0 0 0
0 1000000 1 37.041248 -48.265868 0.000000 0 0 0
0 1000000 1 38.163710 -48.265868 0.000000 0 0 0
0 1000000 1 39.286172 -48.265868 0.000000 0 0 0
0 1000000 1 40.408634 -48.265868 0.000000 0 0 0
0 1000000 1 41.531096 -48.265868 0.000000 0 0 0
0 1000000 1 42.653558 -48.265868 0.000000 0 0 0
0 1000000 1 43.776020 -48.265868 0.000000 0 0 0
0 1000000 1 44.898482 -48.265868 0.000000 0 0 0
0 1000000 1 46.020944 -48.265868 0.000000 0 0 0
0 1000000 1 47.143406 -48.265868 0.000000 0 0 0
0 1000000 1 48.265868 -48.265868 0.000000 0 0 0
0 1000000 1 49.388330 -48.265868 0.000000 0 0 0
0 1000000 1 -49.388330 -47.143406 0.000000 0 0 0
0 1000000 1 -48.265868 -47.143406 0.000000 0 0 0
0 1000000 1 -47.143406 -47.143406 0.000000 0 0 0
0 1000000 1 -46.020944 -47.143406 0.000000 0 0 0
0 1000000 1 -44.898482 -47.143406 0.000000 0 0 0
0 1000000 1 -43.776020 -47.143406 0.000000 0 0 0
0 1000000 1 -42.653558 -47.143406 0.000000 0 0 0
0 1000000 1 -41.531096 -47.143406 0.000000 0 0 0
0 1000000 1 -40.408634 -47.143406 0.000000 0 0 0
0 1000000 1 -39.286172 -47.143406 0.000000 0 0 0
0 1000000 1 -38.163710 -47.143406 0.000000 0 0 0
0 1000000 1 -37.041248 -47.143406 0.000000 0 0 0
0 1000000 1 -35.918786 -47.143406 0.000000 0 0 0
0 1000000 1 -34.796323 -47.143406 0.000000 0 0 0
0 1000000 1 -33.673861 -47.143406 0.000000 0 0 0
0 1000000 1 -32.551399 -47.143406 0.000000 0 0 0
0 1000000 1 -31.428937 -47.143406 0.000000 0 0 0
0 1000000 1 -30.306475 -47.143406 0.000000 0 0 0
0 1000000 1 -29.184013 -47.143406 0.000000 0 0 0
0 1000000 1 -28.061551 -47.143406 0.000000 0 0 0
0 1000000 1 -26.939089 -47.143406 0.000000 0 0 0
0 1000000 1 -25.816627 -47.143406 0.000000 0 0 0
0 1000000 1 -24.694165 -47.143406 0.000000 0 0 0
0 1000000 1 -23.571703 -47.143406 0.000000 0 0 0
0 1000000 1 -22.449241 -47.143406 0.000000 0 0 0
0 1000000 1 -21.326779 -47.143406 0.000000 0 0 0
0 1000000 1 -20.204317 -47.143406 0.000000 0 0 0
0 1000000 1 -19.081855 -47.143406 0.000000 0 0 0
0 1000000 1 -17.959393 -47.143406 0.000000 0 0 0
0 1000000 1 -16.836931 -47.143406 0.000000 0 0 0
0 1000000 1 -15.714469 -47.143406 0.000000 0 0 0
0 1000000 1 -14.592007 -47.143406 0.000000 0 0 0
0 1000000 1 -13.469545 -47.143406 0.000000 0 0 0
0 1000000 1 -12.347083 -47.143406 0.000000 0 0 0
0 1000000 1 -11.224620 -47.143406 0.000000 0 0 0
0 1000000 1 -10.102158 -47.143406 0.000000 0 0 0
0 1000000 1 -8.979696 -47.143406 0.000000 0 0 0
0 1000000 1 -7.857234 -47.143406 0.000000 0 0 0
0 1000000 1 -6.734772 -47.143406 0.000000 0 0 0
0 1000000 1 -5.612310 -47.143406 0.000000 0 0 0
0 1000000 1 -4.489848 -47.143406 0.000000 0 0 0
0 1000000 1 -3.367386 -47.143406 0.000000 0 0 0
0 1000000 1 -2.244924 -47.143406 0.000000 0 0 0
0 1000000 1 -1.122462 -47.143406 0.000000 0 0 0
0 1000000 1 -0.000000 -47.143406 0.000000 0 0 0
0 1000000 1 1.122462 -47.143406 0.000000 0 0 0
0 1000000 1 2.244924 -47.143406 0.000000 0 0 0
0 1000000 1 3.367386 -47.143406 0.000000 0 0 0
0 1000000 1 4.489848 -47.143406 0.000000 0 0 0
0 1000000 1 5.612310 -47.143406 0.000000 0 0 0
0 1000000 1 6.734772 -47.143406 0.000000 0 0 0
0 1000000 1 7.857234 -47.143406 0.000000 0 0 0
0 1000000 1 8.979696 -47.143406 0.000000 0 0 0
0 1000000 1 10.102158 -47.143406 0.000000 0 0 0
0 1000000 1 11.224620 -47.143406 0.000000 0 0 0
0 1000000 1 12.347083 -47.143406 0.000000 0 0 0
0 1000000 1 13.469545 -47.143406 0.000000 0 0 0
0 1000000 1 14.592007 -47.143406 0.000000 0 0 0
0 1000000 1 15.714469 -47.143406 0.000000 0 0 0
0 1000000 1 16.836931 -47.143406 0.000000 0 0 0
0 1000000 1 17.959393 -47.143406 0.000000 0 0 0
0 1000000 1 19.081855 -47.143406 0.000000 0 0 0
0 1000000 1 20.204317 -47.143406 0.000000 0 0 0
0 1000000 1 21.326779 -47.143406 0.000000 0 0 0
0 1000000 1 22.449241 -47.143406 0.000000 0 0 0
0 1000000 1 23.571703 -47.143406 0.000000 0 0 0
0 1000000 1 24.694165 -47.143406 0.000000 0 0 0
0 1000000 1 25.816627 -47.143406 0.000000 0 0 0
0 1000000 1 26.939089 -47.143406 0.000000 0 0 0
0 1000000 1 28.061551 -47.143406 0.000000 0 0 0
0 1000000 1 29.184013 -47.143406 0.000000 0 0 0
0 1000000 1 30.306475 -47.143406 0.000000 0 0 0
0 1000000 1 31.428937 -47.143406 0.000000 0 0 0
0 1000000 1 32.551399 -47.143406 0.000000 0 0 0
0 1000000 1 33.673861 -47.143406 0.000000 0 0 0
0 1000000 1 34.796323 -47.143406 0.000000 0 0 0
0 1000000 1 35.918786 -47.143406 0.000000 0 0 0
0 1000000 1 37.041248 -47.143406 0.000000 0 0 0
0 1000000 1 38.163710 -47.143406 0.000000 0 0 0
0 1000000 1 39.286172 -47.143406 0.000000 0 0 0
0 1000000 1 40.408634 -47.143406 0.000000 0 0 0
0 1000000 1 41.531096 -47.143406 0.000000 0 0 0
0 1000000 1 42.653558 -47.143406 0.000000 0 0 0
0 1000000 1 43.776020 -47.143406 0.000000 0 0 0
0 1000000 1 44.898482 -47.143406 0.000000 0 0 0
0 1000000 1 46.020944 -47.143406 0.000000 0 0 0
0 1000000 1 47.143406 -47.143406 0.000000 0 0 0
0 1000000 1 48.265868 -47.143406 0.000000 0 0 0
0 1000000 1 49.388330 -47.143406 0.000000 0 0 0
0 1000000 1 -49.388330 -46.020944 0.000000 0 0 0
0 1000000 1 -48.265868 -46.020944 0.000000 0 0 0
0 1000000 1 -47.143406 -46.020944 0.000000 0 0 0
0 1000000 1 -46.020944 -46.020944 0.000000 0 0 0
0 1000000 1 -44.898482 -46.020944 0.000000 0 0 0
0 1000000 1 -43.776020 -46.020944 0.000000 0 0 0
0 1000000 1 -42.653558 -46.020944 0.000000 0 0 0
0 1000000 1 -41.531096 -46.020944 0.000000 0 0 0
0 1000000 1 -40.408634 -46.020944 0.000000 0 0 0
0 1000000 1 -39.286172 -46.020944 0.000000 0 0 0
0 1000000 1 -38.163710 -46.020944 0.000000 0 0 0
0 1000000 1 -37.041248 -46.020944 0.000000 0 0 0
0 1000000 1 -35.918786 -46.020944 0.000000 0 0 0
0 1000000 1 -34.796323 -46.020944 0.000000 0 0 0
0 1000000 1 -33.673861 -46.020944 0.000000 0 0 0
0 1000000 1 -32.551399 -46.020944 0.000000 0 0 0
0 1000000 1 -31.428937 -46.020944 0.000000 0 0 0
0 1000000 1 -30.306475 -46.020944 0.000000 0 0 0
0 1000000 1 -29.184013 -46.020944 0.000000 0 0 0
0 1000000 1 -28.061551 -46.020944 0.000000 0 0 0
0 1000000 1 -26.939089 -46.020944 0.000000 0 0 0
0 1000000 1 -25.816627 -46.020944 0.000000 0 0 0
0 1000000 1 -24.694165 -46.020944 0.000000 0 0 0
0 1000000 1 -23.571703 -46.020944 0.000000 0 0 0
0 1000000 1 -22.449241 -46.020944 0.000000 0 0 0
0 1000000 1 -21.326779 -46.020944 0.000000 0 0 0
0 1000000 1 -20.204317 -46.020944 0.000000 0 0 0
0 1000000 1 -19.081855 -46.020944 0.000000 0 0 0
0 1000000 1 -17.959393 -46.020944 0.000000 0 0 0
0 1000000 1 -16.836931 -46.020944 0.000000 0 0 0
0 1000000 1 -15.714469 -46.020944 0.000000 0 0 0
0 1000000 1 -14.592007 -46.020944 0.000000 0 0 0
0 1000000 1 -13.469545 -46.020944 0.000000 0 0 0
0 1000000 1 -12.347083 -46.020944 0.000000 0 0 0
0 1000000 1 -11.224620 -46.020944 0.000000 0 0 0
0 1000000 1 -10.102158 -46.020944 0.000000 0 0 0
0 1000000 1 -8.979696 -46.020944 0.000000 0 0 0
0 1000000 1 -7.857234 -46.020944 0.000000 0 0 0
0 1000000 1 -6.734772 -46.020944 0.000000 0 0 0
0 1000000 1 -5.612310 -46.020944 0.000000 0 0 0
0 1000000 1 -4.489848 -46.020944 0.000000 0 0 0
0 1000000 1 -3.367386 -46.020944 0.000000 0 0 0
0 1000000 1 -2.244924 -46.020944 0.000000 0 0 0
0 1000000 1 -1.122462 -46.020944 0.000000 0 0 0
0 1000000 1 -0.000000 -46.020944 0.000000 0 0 0
0 1000000 1 1.122462 -46.020944 0.000000 0 0 0
0 1000000 1 2.244924 -46.020944 0.000000 0 0 0
0 1000000 1 3.367386 -46.020944 0.000000 0 0 0
0 1000000 1 4.489848 -46.020944 0.000000 0 0 0
0 1000000 1 5.612310 -46.020944 0.000000 0 0 0
0 1000000 1 6.734772 -46.020944 0.000000 0 0 0
0 1000000 1 7.857234 -46.020944 0.000000 0 0 0
0 1000000 1 8.979696 -46.020944 0.000000 0 0 0
0 1000000 1 10.102158 -46.020944 0.000000 0 0 0
0 1000000 1 11.224620 -46.020944 0.000000 0 0 0
0 1000000 1 12.347083 -46.020944 0.000000 0 0 0
0 1000000 1 13.469545 -46.020944 0.000000 0 0 0
0 1000000 1 14.592007 -46.020944 0.000000 0 0 0
0 1000000 1 15.714469 -46.020944 0.000000 0 0 0
0 1000000 1 16.836931 -46.020944 0.000000 0 0 0
0 1000000 1 17.959393 -46.020944 0.000000 0 0 0
0 1000000 1 19.081855 -46.020944 0.000000 0 0 0
0 1000000 1 20.204317 -46.020944 0.000000 0 0 0
0 1000000 1 21.326779 -46.020944 0.000000 0 0 0
0 1000000 1 22.449241 -46.020944 0.000000 0 0 0
0 1000000 1 23.571703 -46.020944 0.000000 0 0 0
0 1000000 1 24.694165 -46.020944 0.000000 0 0 0
0 1000000 1 25.816627 -46.020944 0.000000 0 0 0
0 1000000 1 26.939089 -46.020944 0.000000 0 0 0
0 1000000 1 28.061551 -46.020944 0.000000 0 0 0
0 1000000 1 29.184013 -46.020944 0.000000 0 0 0
0 1000000 1 30.306475 -46.020944 0.000000 0 0 0
0 1000000 1 31.428937 -46.020944 0.000000 0 0 0
0 1000000 1 32.551399 -46.020944 0.000000 0 0 0
0 1000000 1 33.673861 -46.020944 0.000000 0 0 0
0 1000000 1 34.796323 -46.020944 0.000000 0 0 0
0 1000000 1 35.918786 -46.020944 0.000000 0 0 0
0 1000000 1 37.041248 -46.020944 0.000000 0 0 0
0 1000000 1 38.163710 -46.020944 0.000000 0 0 0
0 1000000 1 39.286172 -46.020944 0.000000 0 0 0
0 1000000 1 40.408634 -46.020944 0.000000 0 0 0
0 1000000 1 41.531096 -46.020944 0.000000 0 0 0
0 1000000 1 42.653558 -46.020944 0.000000 0 0 0
0 1000000 1 43.776020 -46.020944 0.000000 0 0 0
0 1000000 1 44.898482 -46.020944 0.000000 0 0 0
0 1000000 1 46.020944 -46.020944 0.000000 0 0 0
0 1000000 1 47.143406 -46.020944 0.000000 0 0 0
0 1000000 1 48.265868 -46.020944 0.000000 0 0 0
0 1000000 1 49.388330 -46.020944 0.000000 0 0 0
0 1000000 1 -49.388330 -44.898482 0.000000 0 0 0
0 1000000 1 -48.265868 -44.898482 0.000000 0 0 0
0 1000000 1 -47.143406 -44.898482 0.000000 0 0 0
0 1000000 1 -46.020944 -44.898482 0.000000 0 0 0
0 1000000 1 -44.898482 -44.898482 0.000000 0 0 0
0 1000000 1 -43.776020 -44.898482 0.000000 0 0 0
0 1000000 1 -42.653558 -44.898482 0.000000 0 0 0
0 1000000 1 -41.531096 -44.898482 0.000000 0 0 0
0 1000000 1 -40.408634 -44.898482 0.000000 0 0 0
0 1000000 1 -39.286172 -44.898482 0.000000 0 0 0
0 1000000 1 -38.163710 -44.898482 0.000000 0 0 0
0 1000000 1 -37.041248 -44.898482 0.000000 0 0 0
0 1000000 1 -35.918786 -44.898482 0.000000 0 0 0
0 1000000 1 -34.796323 -44.898482 0.000000 0 0 0
0 1000000 1 -33.673861 -44.898482 0.000000 0 0 0
0 1000000 1 -32.551399 -44.898482 0.000000 0 0 0
0 1000000 1 -31.428937 -44.898482 0.000000 0 0 0
0 1000000 1 -30.306475 -44.898482 0.000000 0 0 0
0 1000000 1 -29.184013 -44.898482 0.000000 0 0 0
0 1000000 1 -28.061551 -44.898482 0.000000 0 0 0
0 1000000 1 -26.939089 -44.898482 0.000000 0 0 0
0 1000000 1 -25.816627 -44.898482 0.000000 0 0 0
0 1000000 1 -24.694165 -44.898482 0.000000 0 0 0
0 1000000 1 -23.571703 -44.898482 0.000000 0 0 0
0 1000000 1 -22.449241 -44.898482 0.000000 0 0 0
0 1000000 1 -21.326779 -44.898482 0.000000 0 0 0
0 1000000 1 -20.204317 -44.898482 0.000000 0 0 0
0 1000000 1 -19.081855 -44.898482 0.000000 0 0 0
0 1000000 1 -17.959393 -44.898482 0.000000 0 0 0
0 1000000 1 -16.836931 -44.898482 0.000000 0 0 0
0 1000000 1 -15.714469 -44.898482 0.000000 0 0 0
0 1000000 1 -14.592007 -44.898482 0.000000 0 0 0
0 1000000 1 -13.469545 -44.898482 0.000000 0 0 0
0 1000000 1 -12.347083 -44.898482 0.000000 0 0 0
0 1000000 1 -11.224620 -44.898482 0.000000 0 0 0
0 1000000 1 -10.102158 -44.898482 0.000000 0 0 0
0 1000000 1 -8.979696 -44.898482 0.000000 0 0 0
0 1000000 1 -7.857234 -44.898482 0.000000 0 0 0
0 1000000 1 -6.734772 -44.898482 0.000000 0 0 0
0 1000000 1 -5.612310 -44.898482 0.000000 0 0 0
0 1000000 1 -4.489848 -44.898482 0.000000 0 0 0
0 1000000 1 -3.367386 -44.898482 0.000000 0 0 0
0 1000000 1 -2.244924 -44.898482 0.000000 0 0 0
0 1000000 1 -1.122462 -44.898482 0.000000 0 0 0
0 1000000 1 -0.000000 -44.898482 0.000000 0 0 0
0 1000000 1 1.122462 -44.898482 0.000000 0 0 0
0 1000000 1 2.244924 -44.898482 0.000000 0 0 0
0 1000000 1 3.367386 -44.898482 0.000000 0 0 0
0 1000000 1 4.489848 -44.898482 0.000000 0 0 0
0 1000000 1 5.612310 -44.898482 0.000000 0 0 0
0 1000000 1 6.734772 -44.898482 0.000000 0 0 0
0 1000000 1 7.857234 -44.898482 0.000000 0 0 0
0 1000000 1 8.979696 -44.898482 0.000000 0 0 0
0 1000000 1 10.102158 -44.898482 0.000000 0 0 0
0 1000000 1 11.224620 -44.898482 0.000000 0 0 0
0 1000000 1 12.347083 -44.898482 0.000000 0 0 0
0 1000000 1 13.469545 -44.898482 0.000000 0 0 0
0 1000000 1 14.592007 -44.898482 0.000000 0 0 0
0 1000000 1 15.714469 -44.898482 0.000000 0 0 0
0 1000000 1 16.836931 -44.898482 0.000000 0 0 0
0 1000000 1 17.959393 -44.898482 0.000000 0 0 0
0 1000000 1 19.081855 -44.898482 0.000000 0 0 0
0 1000000 1 20.204317 -44.898482 0.000000 0 0 0
0 1000000 1 21.326779 -44.898482 0.000000 0 0 0
0 1000000 1 22.449241 -44.898482 0.000000 0 0 0
0 1000000 1 23.571703 -44.898482 0.000000 0 0 0
0 1000000 1 24.694165 -44.898482 0.000000 0 0 0
0 1000000 1 25.816627 -44.898482 0.000000 0 0 0
0 1000000 1 26.939089 -44.898482 0.000000 0 0 0
0 1000000 1 28.061551 -44.898482 0.000000 0 0 0
0 1000000 1 29.184013 -44.898482 0.000000 0 0 0
0 1000000 1 30.306475 -44.898482 0.000000 0 0 0
0 1000000 1 31.428937 -44.898482 0.000000 0 0 0
0 1000000 1 32.551399 -44.898482 0.000000 0 0 0
0 1000000 1 33.673861 -44.898482 0.000000 0 0 0
0 1000000 1 34.796323 -44.898482 0.000000 0 0 0
0 1000000 1 35.918786 -44.898482 0.000000 0 0 0
0 1000000 1 37.041248 -44.898482 0.000000 0 0 0
0 1000000 1 38.163710 -44.898482 0.000000 0 0 0
0 1000000 1 39.286172 -44.898482 0.000000 0 0 0
0 1000000 1 40.408634 -44.898482 0.000000 0 0 0
0 1000000 1 41.531096 -44.898482 0.000000 0 0 0
0 1000000 1 42.653558 -44.898482 0.000000 0 0 0
0 1000000 1 43.776020 -44.898482 0.000000 0 0 0
0 1000000 1 44.898482 -44.898482 0.000000 0 0 0
0 1000000 1 46.020944 -44.898482 0.000000 0 0 0
0 1000000 1 47.143406 -44.898482 0.000000 0 0 0
0 1000000 1 48.265868 -44.898482 0.000000 0 0 0
0 1000000 1 49.388330 -44.898482 0.000000 0 0 0
0 1000000 1 -49.388330 -43.776020 0.000000 0 0 0
0 1000000 1 -48.265868 -43.776020 0.000000 0 0 0
0 1000000 1 -47.143406 -43.776020 0.000000 0 0 0
0 1000000 1 -46.020944 -43.776020 0.000000 0 0 0
0 1000000 1 -44.898482 -43.776020 0.000000 0 0 0
0 1000000 1 -43.776020 -43.776020 0.000000 0 0 0
0 1000000 1 -42.653558 -43.776020 0.000000 0 0 0
0 1000000 1 -41.531096 -43.776020 0.000000 0 0 0
0 1000000 1 -40.408634 -43.776020 0.000000 0 0 0
0 1000000 1 -39.286172 -43.776020 0.000000 0 0 0
0 1000000 1 -38.163710 -43.776020 0.000000 0 0 0
0 1000000 1 -37.041248 -43.776020 0.000000 0 0 0
0 1000000 1 -35.918786 -43.776020 0.000000 0 0 0
0 1000000 1 -34.796323 -43.776020 0.000000 0 0 0
0 1000000 1 -33.673861 -43.776020 0.000000 0 0 0
0 1000000 1 -32.551399 -43.776020 0.000000 0 0 0
0 1000000 1 -31.428937 -43.776020 0.000000 0 0 0
0 1000000 1 -30.306475 -43.776020 0.000000 0 0 0
0 1000000 1 -29.184013 -43.776020 0.000000 0 0 0
0 1000000 1 -28.061551 -43.776020 0.000000 0 0 0
0 1000000 1 -26.939089 -43.776020 0.000000 0 0 0
0 1000000 1 -25.816627 -43.776020 0.000000 0 0 0
0 1000000 1 -24.694165 -43.776020 0.000000 0 0 0
0 1000000 1 -23.571703 -43.776020 0.000000 0 0 0
0 1000000 1 -22.449241 -43.776020 0.000000 0 0 0
0 1000000 1 -21.326779 -43.776020 0.000000 0 0 0
0 1000000 1 -20.204317 -43.776020 0.000000 0 0 0
0 1000000 1 -19.081855 -43.776020 0.000000 0 0 0
0 1000000 1 -17.959393 -43.776020 0.000000 0 0 0
0 1000000 1 -16.836931 -43.776020 0.000000 0 0 0
0 1000000 1 -15.714469 -43.776020 0.000000 0 0 0
0 1000000 1 -14.592007 -43.776020 0.000000 0 0 0
0 1000000 1 -13.469545 -43.776020 0.000000 0 0 0
0 1000000 1 -12.347083 -43.776020 0.000000 0 0 0
0 1000000 1 -11.224620 -43.776020 0.000000 0 0 0
0 1000000 1 -10.102158 -43.776020 0.000000 0 0 0
0 1000000 1 -8.979696 -43.776020 0.000000 0 0 0
0 1000000 1 -7.857234 -43.776020 0.000000 0 0 0
0 1000000 1 -6.734772 -43.776020 0.000000 0 0 0
0 1000000 1 -5.612310 -43.776020 0.000000 0 0 0
0 1000000 1 -4.489848 -43.776020 0.000000 0 0 0
0 1000000 1 -3.367386 -43.776020 0.000000 0 0 0
0 1000000 1 -2.244924 -43.776020 0.000000 0 0 0
0 1000000 1 -1.122462 -43.776020 0.000000 0 0 0
0 1000000 1 -0.000000 -43.776020 0.000000 0 0 0
0 1000000 1 1.122462 -43.776020 0.000000 0 0 0
0 1000000 1 2.244924 -43.776020 0.000000 0 0 0
0 1000000 1 3.367386 -43.776020 0.000000 0 0 0
0 1000000 1 4.489848 -43.776020 0.000000 0 0 0
0 1000000 1 5.612310 -43.776020 0.000000 0 0 0
0 1000000 1 6.734772 -43.776020 0.000000 0 0 0
0 1000000 1 7.857234 -43.776020 0.000000 0 0 0
0 1000000 1 8.979696 -43.776020 0.000000 0 0 0
0 1000000 1 10.102158 -43.776020 0.000000 0 0 0
0 1000000 1 11.224620 -43.776020 0.000000 0 0 0
0 1000000 1 12.347083 -43.776020 0.000000 0 0 0
0 1000000 1 13.469545 -43.776020 0.000000 0 0 0
0 1000000 1 14.592007 -43.776020 0.000000 0 0 0
0 1000000 1 15.714469 -43.776020 0.000000 0 0 0
0 1000000 1 16.836931 -43.776020 0.000000 0 0 0
0 1000000 1 17.959393 -43.776020 0.000000 0 0 0
0 1000000 1 19.081855 -43.776020 0.000000 0 0 0
0 1000000 1 20.204317 -43.776020 0.000000 0 0 0
0 1000000 1 21.326779 -43.776020 0.000000 0 0 0
0 1000000 1 22.449241 -43.776020 0.000000 0 0 0
0 1000000 1 23.571703 -43.776020 0.000000 0 0 0
0 1000000 1 24.694165 -43.776020 0.000000 0 0 0
0 1000000 1 25.816627 -43.776020 0.000000 0 0 0
0 1000000 1 26.939089 -43.776020 0.000000 0 0 0
0 1000000 1 28.061551 -43.776020 0.000000 0 0 0
0 1000000 1 29.184013 -43.776020 0.000000 0 0 0
0 1000000 1 30.306475 -43.776020 0.000000 0 0 0
0 1000000 1 31.428937 -43.776020 0.000000 0 0 0
0 1000000 1 32.551399 -43.776020 0.000000 0 0 0
0 1000000 1 33.673861 -43.776020 0.000000 0 0 0
0 1000000 1 34.796323 -43.776020 0.000000 0 0 0
0 1000000 1 35.918786 -43.776020 0.000000 0 0 0
0 1000000 1 37.041248 -43.776020 0.000000 0 0 0
0 1000000 1 38.163710 -43.776020 0.000000 0 0 0
0 1000000 1 39.286172 -43.776020 0.000000 0 0 0
0 1000000 1 40.408634 -43.776020 0.000000 0 0 0
0 1000000 1 41.531096 -43.776020 0.000000 0 0 0
0 1000000 1 42.653558 -43.776020 0.000000 0 0 0
0 1000000 1 43.776020 -43.776020 0.000000 0 0 0
0 1000000 1 44.898482 -43.776020 0.000000 0 0 0
0 1000000 1 46.020944 -43.776020 0.000000 0 0 0
0 1000000 1 47.143406 -43.776020 0.000000 0 0 0
0 1000000 1 48.265868 -43.776020 0.000000 0 0 0
0 1000000 1 49.388330 -43.776020 0.000000 0 0 0
0 1000000 1 -49.388330 -42.653558 0.000000 0 0 0
0 1000000 1 -48.265868 -42.653558 0.000000 0 0 0
0 1000000 1 -47.143406 -42.653558 0.000000 0 0 0
0 1000000 1 -46.020944 -42.653558 0.000000 0 0 0
0 1000000 1 -44.898482 -42.653558 0.000000 0 0 0
0 1000000 1 -43.776020 -42.653558 0.000000 0 0 0
0 1000000 1 -42.653558 -42.653558 0.000000 0 0 0
0 1000000 1 -41.531096 -42.653558 0.000000 0 0 0
0 1000000 1 -40.408634 -42.653558 0.000000 0 0 0
0 1000000 1 -39.286172 -42.653558 0.000000 0 0 0
0 1000000 1 -38.163710 -42.653558 0.000000 0 0 0
0 1000000 1 -37.041248 -42.653558 0.000000 0 0 0
0 1000000 1 -35.918786 -42.653558 0.000000 0 0 0
0 1000000 1 -34.796323 -42.653558 0.000000 0 0 0
0 1000000 1 -33.673861 -42.653558 0.000000 0 0 0
0 1000000 1 -32.551399 -42.653558 0.000000 0 0 0
0 1000000 1 -31.428937 -42.653558 0.000000 0 0 0
0 1000000 1 -30.306475 -42.653558 0.000000 0 0 0
0 1000000 1 -29.184013 -42.653558 0.000000 0 0 0
0 1000000 1 -28.061551 -42.653558 0.000000 0 0 0
0 1000000 1 -26.939089 -42.653558 0.000000 0 0 0
0 1000000 1 -25.816627 -42.653558 0.000000 0 0 0
0 1000000 1 -24.694165 -42.653558 0.000000 0 0 0
0 1000000 1 -23.571703 -42.653558 0.000000 0 0 0
0 1000000 1 -22.449241 -42.653558 0.000000 0 0 0
0 1000000 1 -21.326779 -42.653558 0.000000 0 0 0
0 1000000 1 -20.204317 -42.653558 0.000000 0 0 0
0 1000000 1 -19.081855 -42.653558 0.000000 0 0 0
0 1000000 1 -17.959393 -42.653558 0.000000 0 0 0
0 1000000 1 -16.836931 -42.653558 0.000000 0 0 0
0 1000000 1 -15.714469 -42.653558 0.000000 0 0 0
0 1000000 1 -14.592007 -42.653558 0.000000 0 0 0
0 1000000 1 -13.469545 -42.653558 0.000000 0 0 0
0 1000000 1 -12.347083 -42.653558 0.000000 0 0 0
0 1000000 1 -11.224620 -42.653558 0.000000 0 0 0
0 1000000 1 -10.102158 -42.653558 0.000000 0 0 0
0 1000000 1 -8.979696 -42.653558 0.000000 0 0 0
0 1000000 1 -7.857234 -42.653558 0.000000 0 0 0
0 1000000 1 -6.734772 -42.653558 0.000000 0 0 0
0 1000000 1 -5.612310 -42.653558 0.000000 0 0 0
0 1000000 1 -4.489848 -42.653558 0.000000 0 0 0
0 1000000 1 -3.367386 -42.653558 0.000000 0 0 0
0 1000000 1 -2.244924 -42.653558 0.000000 0 0 0
0 1000000 1 -1.122462 -42.653558 0.000000 0 0 0
0 1000000 1 -0.000000 -42.653558 0.000000 0 0 0
0 1000000 1 1.122462 -42.653558 0.000000 0 0 0
0 1000000 1 2.244924 -42.653558 0.000000 0 0 0
0 1000000 1 3.367386 -42.653558 0.000000 0 0 0
0 1000000 1 4.489848 -42.653558 0.000000 0 0 0
0 1000000 1 5.612310 -42.653558 0.000000 0 0 0
0 1000000 1 6.734772 -42.653558 0.000000 0 0 0
0 1000000 1 7.857234 -42.653558 0.000000 0 0 0
0 1000000 1 8.979696 -42.653558 0.000000 0 0 0
0 1000000 1 10.102158 -42.653558 0.000000 0 0 0
0 1000000 1 11.224620 -42.653558 0.000000 0 0 0
0 1000000 1 12.347083 -42.653558 0.000000 0 0 0
0 1000000 1 13.469545 -42.653558 0.000000 0 0 0
0 1000000 1 14.592007 -42.653558 0.000000 0 0 0
0 1000000 1 15.714469 -42.653558 0.000000 0 0 0
0 1000000 1 16.836931 -42.653558 0.000000 0 0 0
0 1000000 1 17.959393 -42.653558 0.000000 0 0 0
0 1000000 1 19.081855 -42.653558 0.000000 0 0 0
0 1000000 1 20.204317 -42.653558 0.000000 0 0 0
0 1000000 1 21.326779 -42.653558 0.000000 0 0 0
0 1000000 1 22.449241 -42.653558 0.000000 0 0 0
0 1000000 1 23.571703 -42.653558 0.000000 0 0 0
0 1000000 1 24.694165 -42.653558 0.000000 0 0 0
0 1000000 1 25.816627 -42.653558 0.000000 0 0 0
0 1000000 1 26.939089 -42.653558 0.000000 0 0 0
0 1000000 1 28.061551 -42.653558 0.000000 0 0 0
0 1000000 1 29.184013 -42.653558 0.000000 0 0 0
0 1000000 1 30.306475 -42.653558 0.000000 0 0 0
0 1000000 1 31.428937 -42.653558 0.000000 0 0 0
0 1000000 1 32.551399 -42.653558 0.000000 0 0 0
0 1000000 1 33.673861 -42.653558 0.000000 0 0 0
0 1000000 1 34.796323 -42.653558 0.000000 0 0 0
0 1000000 1 35.918786 -42.653558 0.000000 0 0 0
0 1000000 1 37.041248 -42.653558 0.000000 0 0 0
0 1000000 1 38.163710 -42.653558 0.000000 0 0 0
0 1000000 1 39.286172 -42.653558 0.000000 0 0 0
0 1000000 1 40.408634 -42.653558 0.000000 0 0 0
0 1000000 1 41.531096 -42.653558 0.000000 0 0 0