Lammps data file; Rough surface stats - qL: 0.0649761 qr: 0.129952 qs: 6.28319 H: 0.5 C: 7.29071

50625 atoms
1 atom types
-48.262499999999996 48.262499999999996 xlo xhi
-48.262499999999996 48.262499999999996 ylo yhi
-3.121697474118222 3.121697474118222 zlo zhi

Masses

1 1
Atoms

1 0 1 -48.2625 -48.2625 7.88881e-17 0 0 0
2 0 1 -48.2625 -47.8335 -0.0904432 0 0 0
3 0 1 -48.2625 -47.4045 0.026091 0 0 0
4 0 1 -48.2625 -46.9755 0.182584 0 0 0
5 0 1 -48.2625 -46.5465 -0.0737267 0 0 0
6 0 1 -48.2625 -46.1175 -0.103913 0 0 0
7 0 1 -48.2625 -45.6885 0.0734845 0 0 0
8 0 1 -48.2625 -45.2595 -0.0597928 0 0 0
9 0 1 -48.2625 -44.8305 -0.205378 0 0 0
10 0 1 -48.2625 -44.4015 -0.221626 0 0 0
11 0 1 -48.2625 -43.9725 -0.229371 0 0 0
12 0 1 -48.2625 -43.5435 -0.435914 0 0 0
13 0 1 -48.2625 -43.1145 -0.471897 0 0 0
14 0 1 -48.2625 -42.6855 -0.180922 0 0 0
15 0 1 -48.2625 -42.2565 -0.151444 0 0 0
16 0 1 -48.2625 -41.8275 -0.234068 0 0 0
17 0 1 -48.2625 -41.3985 -0.111442 0 0 0
18 0 1 -48.2625 -40.9695 -0.00544443 0 0 0
19 0 1 -48.2625 -40.5405 -0.014387 0 0 0
20 0 1 -48.2625 -40.1115 -0.187046 0 0 0
21 0 1 -48.2625 -39.6825 -0.551246 0 0 0
22 0 1 -48.2625 -39.2535 -0.752527 0 0 0
23 0 1 -48.2625 -38.8245 -0.794886 0 0 0
24 0 1 -48.2625 -38.3955 -0.978897 0 0 0
25 0 1 -48.2625 -37.9665 -1.11428 0 0 0
26 0 1 -48.2625 -37.5375 -1.28377 0 0 0
27 0 1 -48.2625 -37.1085 -1.60036 0 0 0
28 0 1 -48.2625 -36.6795 -1.75359 0 0 0
29 0 1 -48.2625 -36.2505 -1.62957 0 0 0
30 0 1 -48.2625 -35.8215 -1.44388 0 0 0
31 0 1 -48.2625 -35.3925 -1.31954 0 0 0
32 0 1 -48.2625 -34.9635 -1.07293 0 0 0
33 0 1 -48.2625 -34.5345 -0.934361 0 0 0
34 0 1 -48.2625 -34.1055 -0.9106 0 0 0
35 0 1 -48.2625 -33.6765 -0.730694 0 0 0
36 0 1 -48.2625 -33.2475 -0.667565 0 0 0
37 0 1 -48.2625 -32.8185 -0.557349 0 0 0
38 0 1 -48.2625 -32.3895 -0.455041 0 0 0
39 0 1 -48.2625 -31.9605 -0.4802 0 0 0
40 0 1 -48.2625 -31.5315 -0.231836 0 0 0
41 0 1 -48.2625 -31.1025 -0.147507 0 0 0
42 0 1 -48.2625 -30.6735 -0.134371 0 0 0
43 0 1 -48.2625 -30.2445 0.294122 0 0 0
44 0 1 -48.2625 -29.8155 0.49761 0 0 0
45 0 1 -48.2625 -29.3865 0.376218 0 0 0
46 0 1 -48.2625 -28.9575 0.283829 0 0 0
47 0 1 -48.2625 -28.5285 0.260283 0 0 0
48 0 1 -48.2625 -28.0995 0.374796 0 0 0
49 0 1 -48.2625 -27.6705 0.307626 0 0 0
50 0 1 -48.2625 -27.2415 0.0224551 0 0 0
51 0 1 -48.2625 -26.8125 0.103442 0 0 0
52 0 1 -48.2625 -26.3835 0.57162 0 0 0
53 0 1 -48.2625 -25.9545 0.728579 0 0 0
54 0 1 -48.2625 -25.5255 0.631536 0 0 0
55 0 1 -48.2625 -25.0965 0.834303 0 0 0
56 0 1 -48.2625 -24.6675 0.766632 0 0 0
57 0 1 -48.2625 -24.2385 0.313144 0 0 0
58 0 1 -48.2625 -23.8095 0.278641 0 0 0
59 0 1 -48.2625 -23.3805 0.400439 0 0 0
60 0 1 -48.2625 -22.9515 0.308304 0 0 0
61 0 1 -48.2625 -22.5225 0.154486 0 0 0
62 0 1 -48.2625 -22.0935 0.00920856 0 0 0
63 0 1 -48.2625 -21.6645 0.0965336 0 0 0
64 0 1 -48.2625 -21.2355 0.291083 0 0 0
65 0 1 -48.2625 -20.8065 0.405848 0 0 0
66 0 1 -48.2625 -20.3775 0.514192 0 0 0
67 0 1 -48.2625 -19.9485 0.529672 0 0 0
68 0 1 -48.2625 -19.5195 0.632683 0 0 0
69 0 1 -48.2625 -19.0905 0.774229 0 0 0
70 0 1 -48.2625 -18.6615 0.621491 0 0 0
71 0 1 -48.2625 -18.2325 0.557976 0 0 0
72 0 1 -48.2625 -17.8035 0.779709 0 0 0
73 0 1 -48.2625 -17.3745 0.910123 0 0 0
74 0 1 -48.2625 -16.9455 0.847802 0 0 0
75 0 1 -48.2625 -16.5165 0.731076 0 0 0
76 0 1 -48.2625 -16.0875 0.771284 0 0 0
77 0 1 -48.2625 -15.6585 0.858011 0 0 0
78 0 1 -48.2625 -15.2295 0.801258 0 0 0
79 0 1 -48.2625 -14.8005 0.803583 0 0 0
80 0 1 -48.2625 -14.3715 0.840375 0 0 0
81 0 1 -48.2625 -13.9425 0.74874 0 0 0
82 0 1 -48.2625 -13.5135 0.671719 0 0 0
83 0 1 -48.2625 -13.0845 0.68211 0 0 0
84 0 1 -48.2625 -12.6555 0.677482 0 0 0
85 0 1 -48.2625 -12.2265 0.740673 0 0 0
86 0 1 -48.2625 -11.7975 0.887921 0 0 0
87 0 1 -48.2625 -11.3685 0.899892 0 0 0
88 0 1 -48.2625 -10.9395 0.76637 0 0 0
89 0 1 -48.2625 -10.5105 0.552293 0 0 0
90 0 1 -48.2625 -10.0815 0.453086 0 0 0
91 0 1 -48.2625 -9.6525 0.593755 0 0 0
92 0 1 -48.2625 -9.2235 0.687022 0 0 0
93 0 1 -48.2625 -8.7945 0.788595 0 0 0
94 0 1 -48.2625 -8.3655 0.986131 0 0 0
95 0 1 -48.2625 -7.9365 1.13488 0 0 0
96 0 1 -48.2625 -7.5075 1.27301 0 0 0
97 0 1 -48.2625 -7.0785 1.26072 0 0 0
98 0 1 -48.2625 -6.6495 1.30983 0 0 0
99 0 1 -48.2625 -6.2205 1.59089 0 0 0
100 0 1 -48.2625 -5.7915 1.64145 0 0 0
101 0 1 -48.2625 -5.3625 1.59344 0 0 0
102 0 1 -48.2625 -4.9335 1.53207 0 0 0
103 0 1 -48.2625 -4.5045 1.29336 0 0 0
104 0 1 -48.2625 -4.0755 1.32172 0 0 0
105 0 1 -48.2625 -3.6465 1.34116 0 0 0
106 0 1 -48.2625 -3.2175 1.1425 0 0 0
107 0 1 -48.2625 -2.7885 1.26979 0 0 0
108 0 1 -48.2625 -2.3595 1.26489 0 0 0
109 0 1 -48.2625 -1.9305 0.957033 0 0 0
110 0 1 -48.2625 -1.5015 0.870483 0 0 0
111 0 1 -48.2625 -1.0725 0.746825 0 0 0
112 0 1 -48.2625 -0.6435 0.504505 0 0 0
113 0 1 -48.2625 -0.2145 0.207307 0 0 0
114 0 1 -48.2625 0.2145 -0.207307 0 0 0
115 0 1 -48.2625 0.6435 -0.504505 0 0 0
116 0 1 -48.2625 1.0725 -0.746825 0 0 0
117 0 1 -48.2625 1.5015 -0.870483 0 0 0
118 0 1 -48.2625 1.9305 -0.957033 0 0 0
119 0 1 -48.2625 2.3595 -1.26489 0 0 0
120 0 1 -48.2625 2.7885 -1.26979 0 0 0
121 0 1 -48.2625 3.2175 -1.1425 0 0 0
122 0 1 -48.2625 3.6465 -1.34116 0 0 0
123 0 1 -48.2625 4.0755 -1.32172 0 0 0
124 0 1 -48.2625 4.5045 -1.29336 0 0 0
125 0 1 -48.2625 4.9335 -1.53207 0 0 0
126 0 1 -48.2625 5.3625 -1.59344 0 0 0
127 0 1 -48.2625 5.7915 -1.64145 0 0 0
128 0 1 -48.2625 6.2205 -1.59089 0 0 0
129 0 1 -48.2625 6.6495 -1.30983 0 0 0
130 0 1 -48.2625 7.0785 -1.26072 0 0 0
131 0 1 -48.2625 7.5075 -1.27301 0 0 0
132 0 1 -48.2625 7.9365 -1.13488 0 0 0
133 0 1 -48.2625 8.3655 -0.986131 0 0 0
134 0 1 -48.2625 8.7945 -0.788595 0 0 0
135 0 1 -48.2625 9.2235 -0.687022 0 0 0
136 0 1 -48.2625 9.6525 -0.593755 0 0 0
137 0 1 -48.2625 10.0815 -0.453086 0 0 0
138 0 1 -48.2625 10.5105 -0.552293 0 0 0
139 0 1 -48.2625 10.9395 -0.76637 0 0 0
140 0 1 -48.2625 11.3685 -0.899892 0 0 0
141 0 1 -48.2625 11.7975 -0.887921 0 0 0
142 0 1 -48.2625 12.2265 -0.740673 0 0 0
143 0 1 -48.2625 12.6555 -0.677482 0 0 0
144 0 1 -48.2625 13.0845 -0.68211 0 0 0
145 0 1 -48.2625 13.5135 -0.671719 0 0 0
146 0 1 -48.2625 13.9425 -0.74874 0 0 0
147 0 1 -48.2625 14.3715 -0.840375 0 0 0
148 0 1 -48.2625 14.8005 -0.803583 0 0 0
149 0 1 -48.2625 15.2295 -0.801258 0 0 0
150 0 1 -48.2625 15.6585 -0.858011 0 0 0
151 0 1 -48.2625 16.0875 -0.771284 0 0 0
152 0 1 -48.2625 16.5165 -0.731076 0 0 0
153 0 1 -48.2625 16.9455 -0.847802 0 0 0
154 0 1 -48.2625 17.3745 -0.910123 0 0 0
155 0 1 -48.2625 17.8035 -0.779709 0 0 0
156 0 1 -48.2625 18.2325 -0.557976 0 0 0
157 0 1 -48.2625 18.6615 -0.621491 0 0 0
158 0 1 -48.2625 19.0905 -0.774229 0 0 0
159 0 1 -48.2625 19.5195 -0.632683 0 0 0
160 0 1 -48.2625 19.9485 -0.529672 0 0 0
161 0 1 -48.2625 20.3775 -0.514192 0 0 0
162 0 1 -48.2625 20.8065 -0.405848 0 0 0
163 0 1 -48.2625 21.2355 -0.291083 0 0 0
164 0 1 -48.2625 21.6645 -0.0965336 0 0 0
165 0 1 -48.2625 22.0935 -0.00920856 0 0 0
166 0 1 -48.2625 22.5225 -0.154486 0 0 0
167 0 1 -48.2625 22.9515 -0.308304 0 0 0
168 0 1 -48.2625 23.3805 -0.400439 0 0 0
169 0 1 -48.2625 23.8095 -0.278641 0 0 0
170 0 1 -48.2625 24.2385 -0.313144 0 0 0
171 0 1 -48.2625 24.6675 -0.766632 0 0 0
172 0 1 -48.2625 25.0965 -0.834303 0 0 0
173 0 1 -48.2625 25.5255 -0.631536 0 0 0
174 0 1 -48.2625 25.9545 -0.728579 0 0 0
175 0 1 -48.2625 26.3835 -0.57162 0 0 0
176 0 1 -48.2625 26.8125 -0.103442 0 0 0
177 0 1 -48.2625 27.2415 -0.0224551 0 0 0
178 0 1 -48.2625 27.6705 -0.307626 0 0 0
179 0 1 -48.2625 28.0995 -0.374796 0 0 0
180 0 1 -48.2625 28.5285 -0.260283 0 0 0
181 0 1 -48.2625 28.9575 -0.283829 0 0 0
182 0 1 -48.2625 29.3865 -0.376218 0 0 0
183 0 1 -48.2625 29.8155 -0.49761 0 0 0
184 0 1 -48.2625 30.2445 -0.294122 0 0 0
185 0 1 -48.2625 30.6735 0.134371 0 0 0
186 0 1 -48.2625 31.1025 0.147507 0 0 0
187 0 1 -48.2625 31.5315 0.231836 0 0 0
188 0 1 -48.2625 31.9605 0.4802 0 0 0
189 0 1 -48.2625 32.3895 0.455041 0 0 0
190 0 1 -48.2625 32.8185 0.557349 0 0 0
191 0 1 -48.2625 33.2475 0.667565 0 0 0
192 0 1 -48.2625 33.6765 0.730694 0 0 0
193 0 1 -48.2625 34.1055 0.9106 0 0 0
194 0 1 -48.2625 34.5345 0.934361 0 0 0
195 0 1 -48.2625 34.9635 1.07293 0 0 0
196 0 1 -48.2625 35.3925 1.31954 0 0 0
197 0 1 -48.2625 35.8215 1.44388 0 0 0
198 0 1 -48.2625 36.2505 1.62957 0 0 0
199 0 1 -48.2625 36.6795 1.75359 0 0 0
200 0 1 -48.2625 37.1085 1.60036 0 0 0
201 0 1 -48.2625 37.5375 1.28377 0 0 0
202 0 1 -48.2625 37.9665 1.11428 0 0 0
203 0 1 -48.2625 38.3955 0.978897 0 0 0
204 0 1 -48.2625 38.8245 0.794886 0 0 0
205 0 1 -48.2625 39.2535 0.752527 0 0 0
206 0 1 -48.2625 39.6825 0.551246 0 0 0
207 0 1 -48.2625 40.1115 0.187046 0 0 0
208 0 1 -48.2625 40.5405 0.014387 0 0 0
209 0 1 -48.2625 40.9695 0.00544443 0 0 0
210 0 1 -48.2625 41.3985 0.111442 0 0 0
211 0 1 -48.2625 41.8275 0.234068 0 0 0
212 0 1 -48.2625 42.2565 0.151444 0 0 0
213 0 1 -48.2625 42.6855 0.180922 0 0 0
214 0 1 -48.2625 43.1145 0.471897 0 0 0
215 0 1 -48.2625 43.5435 0.435914 0 0 0
216 0 1 -48.2625 43.9725 0.229371 0 0 0
217 0 1 -48.2625 44.4015 0.221626 0 0 0
218 0 1 -48.2625 44.8305 0.205378 0 0 0
219 0 1 -48.2625 45.2595 0.0597928 0 0 0
220 0 1 -48.2625 45.6885 -0.0734845 0 0 0
221 0 1 -48.2625 46.1175 0.103913 0 0 0
222 0 1 -48.2625 46.5465 0.0737267 0 0 0
223 0 1 -48.2625 46.9755 -0.182584 0 0 0
224 0 1 -48.2625 47.4045 -0.026091 0 0 0
225 0 1 -48.2625 47.8335 0.0904432 0 0 0
226 0 1 -47.8335 -48.2625 -0.0951745 0 0 0
227 0 1 -47.8335 -47.8335 -0.105992 0 0 0
228 0 1 -47.8335 -47.4045 0.0951383 0 0 0
229 0 1 -47.8335 -46.9755 0.31814 0 0 0
230 0 1 -47.8335 -46.5465 0.109727 0 0 0
231 0 1 -47.8335 -46.1175 0.0202134 0 0 0
232 0 1 -47.8335 -45.6885 0.181975 0 0 0
233 0 1 -47.8335 -45.2595 0.231016 0 0 0
234 0 1 -47.8335 -44.8305 0.142459 0 0 0
235 0 1 -47.8335 -44.4015 -0.148884 0 0 0
236 0 1 -47.8335 -43.9725 -0.282331 0 0 0
237 0 1 -47.8335 -43.5435 -0.381427 0 0 0
238 0 1 -47.8335 -43.1145 -0.508918 0 0 0
239 0 1 -47.8335 -42.6855 -0.388399 0 0 0
240 0 1 -47.8335 -42.2565 -0.378241 0 0 0
241 0 1 -47.8335 -41.8275 -0.409155 0 0 0
242 0 1 -47.8335 -41.3985 -0.229007 0 0 0
243 0 1 -47.8335 -40.9695 -0.0802628 0 0 0
244 0 1 -47.8335 -40.5405 -0.110982 0 0 0
245 0 1 -47.8335 -40.1115 -0.320325 0 0 0
246 0 1 -47.8335 -39.6825 -0.450343 0 0 0
247 0 1 -47.8335 -39.2535 -0.277746 0 0 0
248 0 1 -47.8335 -38.8245 -0.385681 0 0 0
249 0 1 -47.8335 -38.3955 -0.910191 0 0 0
250 0 1 -47.8335 -37.9665 -1.13886 0 0 0
251 0 1 -47.8335 -37.5375 -1.29853 0 0 0
252 0 1 -47.8335 -37.1085 -1.57983 0 0 0
253 0 1 -47.8335 -36.6795 -1.6261 0 0 0
254 0 1 -47.8335 -36.2505 -1.55738 0 0 0
255 0 1 -47.8335 -35.8215 -1.31385 0 0 0
256 0 1 -47.8335 -35.3925 -1.03175 0 0 0
257 0 1 -47.8335 -34.9635 -1.03812 0 0 0
258 0 1 -47.8335 -34.5345 -1.07537 0 0 0
259 0 1 -47.8335 -34.1055 -0.91022 0 0 0
260 0 1 -47.8335 -33.6765 -0.727962 0 0 0
261 0 1 -47.8335 -33.2475 -0.624601 0 0 0
262 0 1 -47.8335 -32.8185 -0.487006 0 0 0
263 0 1 -47.8335 -32.3895 -0.561055 0 0 0
264 0 1 -47.8335 -31.9605 -0.591487 0 0 0
265 0 1 -47.8335 -31.5315 -0.15743 0 0 0
266 0 1 -47.8335 -31.1025 -0.0964644 0 0 0
267 0 1 -47.8335 -30.6735 -0.291316 0 0 0
268 0 1 -47.8335 -30.2445 0.126141 0 0 0
269 0 1 -47.8335 -29.8155 0.527085 0 0 0
270 0 1 -47.8335 -29.3865 0.651669 0 0 0
271 0 1 -47.8335 -28.9575 0.65816 0 0 0
272 0 1 -47.8335 -28.5285 0.399546 0 0 0
273 0 1 -47.8335 -28.0995 0.380908 0 0 0
274 0 1 -47.8335 -27.6705 0.520095 0 0 0
275 0 1 -47.8335 -27.2415 0.417322 0 0 0
276 0 1 -47.8335 -26.8125 0.364079 0 0 0
277 0 1 -47.8335 -26.3835 0.433398 0 0 0
278 0 1 -47.8335 -25.9545 0.513863 0 0 0
279 0 1 -47.8335 -25.5255 0.654441 0 0 0
280 0 1 -47.8335 -25.0965 0.850523 0 0 0
281 0 1 -47.8335 -24.6675 0.813385 0 0 0
282 0 1 -47.8335 -24.2385 0.574742 0 0 0
283 0 1 -47.8335 -23.8095 0.530502 0 0 0
284 0 1 -47.8335 -23.3805 0.532578 0 0 0
285 0 1 -47.8335 -22.9515 0.486924 0 0 0
286 0 1 -47.8335 -22.5225 0.46385 0 0 0
287 0 1 -47.8335 -22.0935 0.335519 0 0 0
288 0 1 -47.8335 -21.6645 0.205281 0 0 0
289 0 1 -47.8335 -21.2355 0.0996151 0 0 0
290 0 1 -47.8335 -20.8065 0.101497 0 0 0
291 0 1 -47.8335 -20.3775 0.338894 0 0 0
292 0 1 -47.8335 -19.9485 0.465606 0 0 0
293 0 1 -47.8335 -19.5195 0.503512 0 0 0
294 0 1 -47.8335 -19.0905 0.653098 0 0 0
295 0 1 -47.8335 -18.6615 0.644727 0 0 0
296 0 1 -47.8335 -18.2325 0.705577 0 0 0
297 0 1 -47.8335 -17.8035 0.946918 0 0 0
298 0 1 -47.8335 -17.3745 1.05647 0 0 0
299 0 1 -47.8335 -16.9455 1.0359 0 0 0
300 0 1 -47.8335 -16.5165 0.83933 0 0 0
301 0 1 -47.8335 -16.0875 0.849394 0 0 0
302 0 1 -47.8335 -15.6585 1.11073 0 0 0
303 0 1 -47.8335 -15.2295 1.1625 0 0 0
304 0 1 -47.8335 -14.8005 1.15862 0 0 0
305 0 1 -47.8335 -14.3715 1.01489 0 0 0
306 0 1 -47.8335 -13.9425 0.860191 0 0 0
307 0 1 -47.8335 -13.5135 0.903339 0 0 0
308 0 1 -47.8335 -13.0845 0.913662 0 0 0
309 0 1 -47.8335 -12.6555 1.00936 0 0 0
310 0 1 -47.8335 -12.2265 0.97207 0 0 0
311 0 1 -47.8335 -11.7975 0.739558 0 0 0
312 0 1 -47.8335 -11.3685 0.627275 0 0 0
313 0 1 -47.8335 -10.9395 0.545619 0 0 0
314 0 1 -47.8335 -10.5105 0.507722 0 0 0
315 0 1 -47.8335 -10.0815 0.570131 0 0 0
316 0 1 -47.8335 -9.6525 0.615653 0 0 0
317 0 1 -47.8335 -9.2235 0.507461 0 0 0
318 0 1 -47.8335 -8.7945 0.476478 0 0 0
319 0 1 -47.8335 -8.3655 0.639739 0 0 0
320 0 1 -47.8335 -7.9365 0.706299 0 0 0
321 0 1 -47.8335 -7.5075 0.8958 0 0 0
322 0 1 -47.8335 -7.0785 1.09037 0 0 0
323 0 1 -47.8335 -6.6495 1.06157 0 0 0
324 0 1 -47.8335 -6.2205 1.28122 0 0 0
325 0 1 -47.8335 -5.7915 1.5509 0 0 0
326 0 1 -47.8335 -5.3625 1.54667 0 0 0
327 0 1 -47.8335 -4.9335 1.36563 0 0 0
328 0 1 -47.8335 -4.5045 1.15207 0 0 0
329 0 1 -47.8335 -4.0755 1.28301 0 0 0
330 0 1 -47.8335 -3.6465 1.36717 0 0 0
331 0 1 -47.8335 -3.2175 1.22952 0 0 0
332 0 1 -47.8335 -2.7885 1.43067 0 0 0
333 0 1 -47.8335 -2.3595 1.47748 0 0 0
334 0 1 -47.8335 -1.9305 1.15751 0 0 0
335 0 1 -47.8335 -1.5015 1.02592 0 0 0
336 0 1 -47.8335 -1.0725 0.880345 0 0 0
337 0 1 -47.8335 -0.6435 0.552349 0 0 0
338 0 1 -47.8335 -0.2145 0.148098 0 0 0
339 0 1 -47.8335 0.2145 -0.33433 0 0 0
340 0 1 -47.8335 0.6435 -0.709296 0 0 0
341 0 1 -47.8335 1.0725 -0.88288 0 0 0
342 0 1 -47.8335 1.5015 -0.887315 0 0 0
343 0 1 -47.8335 1.9305 -0.893574 0 0 0
344 0 1 -47.8335 2.3595 -1.08093 0 0 0
345 0 1 -47.8335 2.7885 -1.14438 0 0 0
346 0 1 -47.8335 3.2175 -1.01183 0 0 0
347 0 1 -47.8335 3.6465 -1.08064 0 0 0
348 0 1 -47.8335 4.0755 -1.24976 0 0 0
349 0 1 -47.8335 4.5045 -1.41528 0 0 0
350 0 1 -47.8335 4.9335 -1.6762 0 0 0
351 0 1 -47.8335 5.3625 -1.74002 0 0 0
352 0 1 -47.8335 5.7915 -1.68863 0 0 0
353 0 1 -47.8335 6.2205 -1.67412 0 0 0
354 0 1 -47.8335 6.6495 -1.42585 0 0 0
355 0 1 -47.8335 7.0785 -1.19493 0 0 0
356 0 1 -47.8335 7.5075 -1.16292 0 0 0
357 0 1 -47.8335 7.9365 -1.11453 0 0 0
358 0 1 -47.8335 8.3655 -1.12678 0 0 0
359 0 1 -47.8335 8.7945 -1.15256 0 0 0
360 0 1 -47.8335 9.2235 -1.06967 0 0 0
361 0 1 -47.8335 9.6525 -0.818857 0 0 0
362 0 1 -47.8335 10.0815 -0.600995 0 0 0
363 0 1 -47.8335 10.5105 -0.747996 0 0 0
364 0 1 -47.8335 10.9395 -0.9448 0 0 0
365 0 1 -47.8335 11.3685 -1.11574 0 0 0
366 0 1 -47.8335 11.7975 -1.19218 0 0 0
367 0 1 -47.8335 12.2265 -0.909807 0 0 0
368 0 1 -47.8335 12.6555 -0.757742 0 0 0
369 0 1 -47.8335 13.0845 -0.596414 0 0 0
370 0 1 -47.8335 13.5135 -0.262179 0 0 0
371 0 1 -47.8335 13.9425 -0.333948 0 0 0
372 0 1 -47.8335 14.3715 -0.569407 0 0 0
373 0 1 -47.8335 14.8005 -0.592575 0 0 0
374 0 1 -47.8335 15.2295 -0.464443 0 0 0
375 0 1 -47.8335 15.6585 -0.410303 0 0 0
376 0 1 -47.8335 16.0875 -0.451403 0 0 0
377 0 1 -47.8335 16.5165 -0.273784 0 0 0
378 0 1 -47.8335 16.9455 -0.21487 0 0 0
379 0 1 -47.8335 17.3745 -0.53491 0 0 0
380 0 1 -47.8335 17.8035 -0.704991 0 0 0
381 0 1 -47.8335 18.2325 -0.529681 0 0 0
382 0 1 -47.8335 18.6615 -0.532312 0 0 0
383 0 1 -47.8335 19.0905 -0.76903 0 0 0
384 0 1 -47.8335 19.5195 -0.702471 0 0 0
385 0 1 -47.8335 19.9485 -0.57165 0 0 0
386 0 1 -47.8335 20.3775 -0.597763 0 0 0
387 0 1 -47.8335 20.8065 -0.494416 0 0 0
388 0 1 -47.8335 21.2355 -0.294693 0 0 0
389 0 1 -47.8335 21.6645 0.0603987 0 0 0
390 0 1 -47.8335 22.0935 0.244535 0 0 0
391 0 1 -47.8335 22.5225 -0.0709535 0 0 0
392 0 1 -47.8335 22.9515 -0.356955 0 0 0
393 0 1 -47.8335 23.3805 -0.353767 0 0 0
394 0 1 -47.8335 23.8095 -0.260501 0 0 0
395 0 1 -47.8335 24.2385 -0.444349 0 0 0
396 0 1 -47.8335 24.6675 -0.857838 0 0 0
397 0 1 -47.8335 25.0965 -0.820336 0 0 0
398 0 1 -47.8335 25.5255 -0.634288 0 0 0
399 0 1 -47.8335 25.9545 -0.773449 0 0 0
400 0 1 -47.8335 26.3835 -0.66982 0 0 0
401 0 1 -47.8335 26.8125 -0.260044 0 0 0
402 0 1 -47.8335 27.2415 -0.0805932 0 0 0
403 0 1 -47.8335 27.6705 -0.294213 0 0 0
404 0 1 -47.8335 28.0995 -0.478405 0 0 0
405 0 1 -47.8335 28.5285 -0.300336 0 0 0
406 0 1 -47.8335 28.9575 -0.154678 0 0 0
407 0 1 -47.8335 29.3865 -0.143423 0 0 0
408 0 1 -47.8335 29.8155 -0.0833487 0 0 0
409 0 1 -47.8335 30.2445 -0.0208366 0 0 0
410 0 1 -47.8335 30.6735 0.0106895 0 0 0
411 0 1 -47.8335 31.1025 -0.0278965 0 0 0
412 0 1 -47.8335 31.5315 0.196193 0 0 0
413 0 1 -47.8335 31.9605 0.464859 0 0 0
414 0 1 -47.8335 32.3895 0.36042 0 0 0
415 0 1 -47.8335 32.8185 0.376512 0 0 0
416 0 1 -47.8335 33.2475 0.475086 0 0 0
417 0 1 -47.8335 33.6765 0.629413 0 0 0
418 0 1 -47.8335 34.1055 0.888641 0 0 0
419 0 1 -47.8335 34.5345 0.869513 0 0 0
420 0 1 -47.8335 34.9635 1.09108 0 0 0
421 0 1 -47.8335 35.3925 1.49395 0 0 0
422 0 1 -47.8335 35.8215 1.52996 0 0 0
423 0 1 -47.8335 36.2505 1.59545 0 0 0
424 0 1 -47.8335 36.6795 1.66301 0 0 0
425 0 1 -47.8335 37.1085 1.48286 0 0 0
426 0 1 -47.8335 37.5375 1.28623 0 0 0
427 0 1 -47.8335 37.9665 1.20795 0 0 0
428 0 1 -47.8335 38.3955 1.14076 0 0 0
429 0 1 -47.8335 38.8245 1.08333 0 0 0
430 0 1 -47.8335 39.2535 0.98788 0 0 0
431 0 1 -47.8335 39.6825 0.663584 0 0 0
432 0 1 -47.8335 40.1115 0.35998 0 0 0
433 0 1 -47.8335 40.5405 0.232549 0 0 0
434 0 1 -47.8335 40.9695 0.10985 0 0 0
435 0 1 -47.8335 41.3985 0.136292 0 0 0
436 0 1 -47.8335 41.8275 0.302653 0 0 0
437 0 1 -47.8335 42.2565 0.252303 0 0 0
438 0 1 -47.8335 42.6855 0.218825 0 0 0
439 0 1 -47.8335 43.1145 0.412622 0 0 0
440 0 1 -47.8335 43.5435 0.339515 0 0 0
441 0 1 -47.8335 43.9725 0.261146 0 0 0
442 0 1 -47.8335 44.4015 0.403555 0 0 0
443 0 1 -47.8335 44.8305 0.305086 0 0 0
444 0 1 -47.8335 45.2595 0.0751337 0 0 0
445 0 1 -47.8335 45.6885 -0.0249959 0 0 0
446 0 1 -47.8335 46.1175 0.110501 0 0 0
447 0 1 -47.8335 46.5465 0.094789 0 0 0
448 0 1 -47.8335 46.9755 -0.0705066 0 0 0
449 0 1 -47.8335 47.4045 0.062076 0 0 0
450 0 1 -47.8335 47.8335 0.053522 0 0 0
451 0 1 -47.4045 -48.2625 -0.178639 0 0 0
452 0 1 -47.4045 -47.8335 -0.0540214 0 0 0
453 0 1 -47.4045 -47.4045 0.182109 0 0 0
454 0 1 -47.4045 -46.9755 0.274742 0 0 0
455 0 1 -47.4045 -46.5465 0.145092 0 0 0
456 0 1 -47.4045 -46.1175 0.219709 0 0 0
457 0 1 -47.4045 -45.6885 0.365494 0 0 0
458 0 1 -47.4045 -45.2595 0.38777 0 0 0
459 0 1 -47.4045 -44.8305 0.247861 0 0 0
460 0 1 -47.4045 -44.4015 -0.150125 0 0 0
461 0 1 -47.4045 -43.9725 -0.215342 0 0 0
462 0 1 -47.4045 -43.5435 -0.135889 0 0 0
463 0 1 -47.4045 -43.1145 -0.209423 0 0 0
464 0 1 -47.4045 -42.6855 -0.230084 0 0 0
465 0 1 -47.4045 -42.2565 -0.342388 0 0 0
466 0 1 -47.4045 -41.8275 -0.308801 0 0 0
467 0 1 -47.4045 -41.3985 -0.206013 0 0 0
468 0 1 -47.4045 -40.9695 -0.261037 0 0 0
469 0 1 -47.4045 -40.5405 -0.261586 0 0 0
470 0 1 -47.4045 -40.1115 -0.333225 0 0 0
471 0 1 -47.4045 -39.6825 -0.292053 0 0 0
472 0 1 -47.4045 -39.2535 0.0854208 0 0 0
473 0 1 -47.4045 -38.8245 -0.0731894 0 0 0
474 0 1 -47.4045 -38.3955 -0.840409 0 0 0
475 0 1 -47.4045 -37.9665 -1.10306 0 0 0
476 0 1 -47.4045 -37.5375 -1.13323 0 0 0
477 0 1 -47.4045 -37.1085 -1.35888 0 0 0
478 0 1 -47.4045 -36.6795 -1.32179 0 0 0
479 0 1 -47.4045 -36.2505 -1.24569 0 0 0
480 0 1 -47.4045 -35.8215 -1.25057 0 0 0
481 0 1 -47.4045 -35.3925 -1.16089 0 0 0
482 0 1 -47.4045 -34.9635 -1.12502 0 0 0
483 0 1 -47.4045 -34.5345 -1.05871 0 0 0
484 0 1 -47.4045 -34.1055 -0.85294 0 0 0
485 0 1 -47.4045 -33.6765 -0.649394 0 0 0
486 0 1 -47.4045 -33.2475 -0.463115 0 0 0
487 0 1 -47.4045 -32.8185 -0.256716 0 0 0
488 0 1 -47.4045 -32.3895 -0.302965 0 0 0
489 0 1 -47.4045 -31.9605 -0.375171 0 0 0
490 0 1 -47.4045 -31.5315 -0.0175352 0 0 0
491 0 1 -47.4045 -31.1025 0.0467851 0 0 0
492 0 1 -47.4045 -30.6735 -0.202 0 0 0
493 0 1 -47.4045 -30.2445 0.177698 0 0 0
494 0 1 -47.4045 -29.8155 0.673491 0 0 0
495 0 1 -47.4045 -29.3865 0.903236 0 0 0
496 0 1 -47.4045 -28.9575 1.08316 0 0 0
497 0 1 -47.4045 -28.5285 0.95622 0 0 0
498 0 1 -47.4045 -28.0995 0.818819 0 0 0
499 0 1 -47.4045 -27.6705 0.811446 0 0 0
500 0 1 -47.4045 -27.2415 0.87928 0 0 0
501 0 1 -47.4045 -26.8125 0.917495 0 0 0
502 0 1 -47.4045 -26.3835 0.592295 0 0 0
503 0 1 -47.4045 -25.9545 0.482638 0 0 0
504 0 1 -47.4045 -25.5255 0.698518 0 0 0
505 0 1 -47.4045 -25.0965 0.748286 0 0 0
506 0 1 -47.4045 -24.6675 0.847778 0 0 0
507 0 1 -47.4045 -24.2385 0.888238 0 0 0
508 0 1 -47.4045 -23.8095 0.679186 0 0 0
509 0 1 -47.4045 -23.3805 0.587488 0 0 0
510 0 1 -47.4045 -22.9515 0.72684 0 0 0
511 0 1 -47.4045 -22.5225 0.756757 0 0 0
512 0 1 -47.4045 -22.0935 0.596646 0 0 0
513 0 1 -47.4045 -21.6645 0.402453 0 0 0
514 0 1 -47.4045 -21.2355 0.0892104 0 0 0
515 0 1 -47.4045 -20.8065 -0.150729 0 0 0
516 0 1 -47.4045 -20.3775 -0.00670272 0 0 0
517 0 1 -47.4045 -19.9485 0.211595 0 0 0
518 0 1 -47.4045 -19.5195 0.366177 0 0 0
519 0 1 -47.4045 -19.0905 0.606247 0 0 0
520 0 1 -47.4045 -18.6615 0.765742 0 0 0
521 0 1 -47.4045 -18.2325 1.0238 0 0 0
522 0 1 -47.4045 -17.8035 1.22212 0 0 0
523 0 1 -47.4045 -17.3745 1.02819 0 0 0
524 0 1 -47.4045 -16.9455 0.921583 0 0 0
525 0 1 -47.4045 -16.5165 0.930508 0 0 0
526 0 1 -47.4045 -16.0875 1.00549 0 0 0
527 0 1 -47.4045 -15.6585 1.09615 0 0 0
528 0 1 -47.4045 -15.2295 1.12664 0 0 0
529 0 1 -47.4045 -14.8005 1.39049 0 0 0
530 0 1 -47.4045 -14.3715 1.32404 0 0 0
531 0 1 -47.4045 -13.9425 1.04097 0 0 0
532 0 1 -47.4045 -13.5135 1.05593 0 0 0
533 0 1 -47.4045 -13.0845 1.10975 0 0 0
534 0 1 -47.4045 -12.6555 1.31222 0 0 0
535 0 1 -47.4045 -12.2265 1.17539 0 0 0
536 0 1 -47.4045 -11.7975 0.68241 0 0 0
537 0 1 -47.4045 -11.3685 0.524438 0 0 0
538 0 1 -47.4045 -10.9395 0.556493 0 0 0
539 0 1 -47.4045 -10.5105 0.674772 0 0 0
540 0 1 -47.4045 -10.0815 0.703125 0 0 0
541 0 1 -47.4045 -9.6525 0.568498 0 0 0
542 0 1 -47.4045 -9.2235 0.448882 0 0 0
543 0 1 -47.4045 -8.7945 0.45577 0 0 0
544 0 1 -47.4045 -8.3655 0.595814 0 0 0
545 0 1 -47.4045 -7.9365 0.556243 0 0 0
546 0 1 -47.4045 -7.5075 0.689243 0 0 0
547 0 1 -47.4045 -7.0785 1.04492 0 0 0
548 0 1 -47.4045 -6.6495 1.03906 0 0 0
549 0 1 -47.4045 -6.2205 1.09217 0 0 0
550 0 1 -47.4045 -5.7915 1.35965 0 0 0
551 0 1 -47.4045 -5.3625 1.40273 0 0 0
552 0 1 -47.4045 -4.9335 1.30142 0 0 0
553 0 1 -47.4045 -4.5045 1.28071 0 0 0
554 0 1 -47.4045 -4.0755 1.38224 0 0 0
555 0 1 -47.4045 -3.6465 1.35806 0 0 0
556 0 1 -47.4045 -3.2175 1.28474 0 0 0
557 0 1 -47.4045 -2.7885 1.43759 0 0 0
558 0 1 -47.4045 -2.3595 1.51676 0 0 0
559 0 1 -47.4045 -1.9305 1.36406 0 0 0
560 0 1 -47.4045 -1.5015 1.21079 0 0 0
561 0 1 -47.4045 -1.0725 1.02007 0 0 0
562 0 1 -47.4045 -0.6435 0.530229 0 0 0
563 0 1 -47.4045 -0.2145 -0.109457 0 0 0
564 0 1 -47.4045 0.2145 -0.610974 0 0 0
565 0 1 -47.4045 0.6435 -0.922159 0 0 0
566 0 1 -47.4045 1.0725 -0.934487 0 0 0
567 0 1 -47.4045 1.5015 -0.914185 0 0 0
568 0 1 -47.4045 1.9305 -1.01049 0 0 0
569 0 1 -47.4045 2.3595 -1.10721 0 0 0
570 0 1 -47.4045 2.7885 -1.31569 0 0 0
571 0 1 -47.4045 3.2175 -1.30898 0 0 0
572 0 1 -47.4045 3.6465 -1.21503 0 0 0
573 0 1 -47.4045 4.0755 -1.41062 0 0 0
574 0 1 -47.4045 4.5045 -1.50587 0 0 0
575 0 1 -47.4045 4.9335 -1.59193 0 0 0
576 0 1 -47.4045 5.3625 -1.76747 0 0 0
577 0 1 -47.4045 5.7915 -1.81817 0 0 0
578 0 1 -47.4045 6.2205 -1.87993 0 0 0
579 0 1 -47.4045 6.6495 -1.69155 0 0 0
580 0 1 -47.4045 7.0785 -1.29456 0 0 0
581 0 1 -47.4045 7.5075 -1.18655 0 0 0
582 0 1 -47.4045 7.9365 -1.20855 0 0 0
583 0 1 -47.4045 8.3655 -1.12374 0 0 0
584 0 1 -47.4045 8.7945 -1.02442 0 0 0
585 0 1 -47.4045 9.2235 -1.06071 0 0 0
586 0 1 -47.4045 9.6525 -1.02506 0 0 0
587 0 1 -47.4045 10.0815 -0.814437 0 0 0
588 0 1 -47.4045 10.5105 -0.834564 0 0 0
589 0 1 -47.4045 10.9395 -0.949658 0 0 0
590 0 1 -47.4045 11.3685 -1.13803 0 0 0
591 0 1 -47.4045 11.7975 -1.23726 0 0 0
592 0 1 -47.4045 12.2265 -0.868448 0 0 0
593 0 1 -47.4045 12.6555 -0.76239 0 0 0
594 0 1 -47.4045 13.0845 -0.73038 0 0 0
595 0 1 -47.4045 13.5135 -0.370542 0 0 0
596 0 1 -47.4045 13.9425 -0.298301 0 0 0
597 0 1 -47.4045 14.3715 -0.34468 0 0 0
598 0 1 -47.4045 14.8005 -0.372708 0 0 0
599 0 1 -47.4045 15.2295 -0.322346 0 0 0
600 0 1 -47.4045 15.6585 -0.267394 0 0 0
601 0 1 -47.4045 16.0875 -0.329841 0 0 0
602 0 1 -47.4045 16.5165 -0.0875913 0 0 0
603 0 1 -47.4045 16.9455 -0.0550109 0 0 0
604 0 1 -47.4045 17.3745 -0.464451 0 0 0
605 0 1 -47.4045 17.8035 -0.548017 0 0 0
606 0 1 -47.4045 18.2325 -0.244965 0 0 0
607 0 1 -47.4045 18.6615 -0.198255 0 0 0
608 0 1 -47.4045 19.0905 -0.518632 0 0 0
609 0 1 -47.4045 19.5195 -0.581862 0 0 0
610 0 1 -47.4045 19.9485 -0.582042 0 0 0
611 0 1 -47.4045 20.3775 -0.648197 0 0 0
612 0 1 -47.4045 20.8065 -0.361569 0 0 0
613 0 1 -47.4045 21.2355 -0.0906719 0 0 0
614 0 1 -47.4045 21.6645 0.0905336 0 0 0
615 0 1 -47.4045 22.0935 0.143043 0 0 0
616 0 1 -47.4045 22.5225 -0.11119 0 0 0
617 0 1 -47.4045 22.9515 -0.145802 0 0 0
618 0 1 -47.4045 23.3805 0.00258744 0 0 0
619 0 1 -47.4045 23.8095 -0.118101 0 0 0
620 0 1 -47.4045 24.2385 -0.490493 0 0 0
621 0 1 -47.4045 24.6675 -0.879602 0 0 0
622 0 1 -47.4045 25.0965 -0.969404 0 0 0
623 0 1 -47.4045 25.5255 -0.830798 0 0 0
624 0 1 -47.4045 25.9545 -0.690779 0 0 0
625 0 1 -47.4045 26.3835 -0.577342 0 0 0
626 0 1 -47.4045 26.8125 -0.593153 0 0 0
627 0 1 -47.4045 27.2415 -0.575974 0 0 0
628 0 1 -47.4045 27.6705 -0.432582 0 0 0
629 0 1 -47.4045 28.0995 -0.351333 0 0 0
630 0 1 -47.4045 28.5285 -0.298101 0 0 0
631 0 1 -47.4045 28.9575 -0.324587 0 0 0
632 0 1 -47.4045 29.3865 -0.214764 0 0 0
633 0 1 -47.4045 29.8155 0.109553 0 0 0
634 0 1 -47.4045 30.2445 0.0875308 0 0 0
635 0 1 -47.4045 30.6735 -0.135713 0 0 0
636 0 1 -47.4045 31.1025 -0.0884136 0 0 0
637 0 1 -47.4045 31.5315 0.31794 0 0 0
638 0 1 -47.4045 31.9605 0.710682 0 0 0
639 0 1 -47.4045 32.3895 0.547273 0 0 0
640 0 1 -47.4045 32.8185 0.344942 0 0 0
641 0 1 -47.4045 33.2475 0.466757 0 0 0
642 0 1 -47.4045 33.6765 0.661519 0 0 0
643 0 1 -47.4045 34.1055 0.935139 0 0 0
644 0 1 -47.4045 34.5345 1.04672 0 0 0
645 0 1 -47.4045 34.9635 1.12873 0 0 0
646 0 1 -47.4045 35.3925 1.3676 0 0 0
647 0 1 -47.4045 35.8215 1.56808 0 0 0
648 0 1 -47.4045 36.2505 1.75498 0 0 0
649 0 1 -47.4045 36.6795 1.75905 0 0 0
650 0 1 -47.4045 37.1085 1.53865 0 0 0
651 0 1 -47.4045 37.5375 1.30291 0 0 0
652 0 1 -47.4045 37.9665 1.13577 0 0 0
653 0 1 -47.4045 38.3955 1.09889 0 0 0
654 0 1 -47.4045 38.8245 1.09378 0 0 0
655 0 1 -47.4045 39.2535 0.97289 0 0 0
656 0 1 -47.4045 39.6825 0.825136 0 0 0
657 0 1 -47.4045 40.1115 0.736913 0 0 0
658 0 1 -47.4045 40.5405 0.439548 0 0 0
659 0 1 -47.4045 40.9695 0.039315 0 0 0
660 0 1 -47.4045 41.3985 0.103255 0 0 0
661 0 1 -47.4045 41.8275 0.356342 0 0 0
662 0 1 -47.4045 42.2565 0.226287 0 0 0
663 0 1 -47.4045 42.6855 0.239232 0 0 0
664 0 1 -47.4045 43.1145 0.536405 0 0 0
665 0 1 -47.4045 43.5435 0.398621 0 0 0
666 0 1 -47.4045 43.9725 0.297632 0 0 0
667 0 1 -47.4045 44.4015 0.41119 0 0 0
668 0 1 -47.4045 44.8305 0.129548 0 0 0
669 0 1 -47.4045 45.2595 -0.113162 0 0 0
670 0 1 -47.4045 45.6885 -0.0790782 0 0 0
671 0 1 -47.4045 46.1175 0.0459449 0 0 0
672 0 1 -47.4045 46.5465 0.0719003 0 0 0
673 0 1 -47.4045 46.9755 0.0668783 0 0 0
674 0 1 -47.4045 47.4045 0.217579 0 0 0
675 0 1 -47.4045 47.8335 0.0500337 0 0 0
676 0 1 -46.9755 -48.2625 -0.108416 0 0 0
677 0 1 -46.9755 -47.8335 0.194285 0 0 0
678 0 1 -46.9755 -47.4045 0.455707 0 0 0
679 0 1 -46.9755 -46.9755 0.380953 0 0 0
680 0 1 -46.9755 -46.5465 0.209633 0 0 0
681 0 1 -46.9755 -46.1175 0.429605 0 0 0
682 0 1 -46.9755 -45.6885 0.59864 0 0 0
683 0 1 -46.9755 -45.2595 0.461297 0 0 0
684 0 1 -46.9755 -44.8305 0.279993 0 0 0
685 0 1 -46.9755 -44.4015 0.0941363 0 0 0
686 0 1 -46.9755 -43.9725 -0.010173 0 0 0
687 0 1 -46.9755 -43.5435 -0.175795 0 0 0
688 0 1 -46.9755 -43.1145 -0.0777647 0 0 0
689 0 1 -46.9755 -42.6855 0.0529966 0 0 0
690 0 1 -46.9755 -42.2565 -0.218862 0 0 0
691 0 1 -46.9755 -41.8275 -0.21695 0 0 0
692 0 1 -46.9755 -41.3985 -0.117276 0 0 0
693 0 1 -46.9755 -40.9695 -0.171349 0 0 0
694 0 1 -46.9755 -40.5405 -0.0759947 0 0 0
695 0 1 -46.9755 -40.1115 -0.137407 0 0 0
696 0 1 -46.9755 -39.6825 -0.158224 0 0 0
697 0 1 -46.9755 -39.2535 0.134795 0 0 0
698 0 1 -46.9755 -38.8245 -0.066088 0 0 0
699 0 1 -46.9755 -38.3955 -0.812359 0 0 0
700 0 1 -46.9755 -37.9665 -1.05693 0 0 0
701 0 1 -46.9755 -37.5375 -1.07587 0 0 0
702 0 1 -46.9755 -37.1085 -1.3982 0 0 0
703 0 1 -46.9755 -36.6795 -1.3536 0 0 0
704 0 1 -46.9755 -36.2505 -1.01041 0 0 0
705 0 1 -46.9755 -35.8215 -1.07711 0 0 0
706 0 1 -46.9755 -35.3925 -1.34585 0 0 0
707 0 1 -46.9755 -34.9635 -1.30294 0 0 0
708 0 1 -46.9755 -34.5345 -1.12044 0 0 0
709 0 1 -46.9755 -34.1055 -0.952608 0 0 0
710 0 1 -46.9755 -33.6765 -0.669785 0 0 0
711 0 1 -46.9755 -33.2475 -0.477377 0 0 0
712 0 1 -46.9755 -32.8185 -0.322766 0 0 0
713 0 1 -46.9755 -32.3895 -0.148326 0 0 0
714 0 1 -46.9755 -31.9605 -0.173142 0 0 0
715 0 1 -46.9755 -31.5315 -0.0632992 0 0 0
716 0 1 -46.9755 -31.1025 0.1255 0 0 0
717 0 1 -46.9755 -30.6735 0.232195 0 0 0
718 0 1 -46.9755 -30.2445 0.723853 0 0 0
719 0 1 -46.9755 -29.8155 1.09117 0 0 0
720 0 1 -46.9755 -29.3865 1.08593 0 0 0
721 0 1 -46.9755 -28.9575 1.29078 0 0 0
722 0 1 -46.9755 -28.5285 1.40909 0 0 0
723 0 1 -46.9755 -28.0995 1.31137 0 0 0
724 0 1 -46.9755 -27.6705 1.24003 0 0 0
725 0 1 -46.9755 -27.2415 1.38871 0 0 0
726 0 1 -46.9755 -26.8125 1.49108 0 0 0
727 0 1 -46.9755 -26.3835 1.05945 0 0 0
728 0 1 -46.9755 -25.9545 0.870073 0 0 0
729 0 1 -46.9755 -25.5255 0.981106 0 0 0
730 0 1 -46.9755 -25.0965 0.770997 0 0 0
731 0 1 -46.9755 -24.6675 0.802282 0 0 0
732 0 1 -46.9755 -24.2385 0.971862 0 0 0
733 0 1 -46.9755 -23.8095 0.783618 0 0 0
734 0 1 -46.9755 -23.3805 0.641742 0 0 0
735 0 1 -46.9755 -22.9515 0.738174 0 0 0