Crsytal with exposed surface: 001 and interactomic distance: 1.12246

36 atoms
1 atom types
-2.8061551207734325 2.8061551207734325 xlo xhi
-2.8061551207734325 2.8061551207734325 ylo yhi
0.01575521879667008 0.39767904363582574 zlo zhi

Atoms

0 1000000 1 -2.806155 -2.806155 0.397679 0 0 0
0 1000000 1 -1.683693 -2.806155 0.269550 0 0 0
0 1000000 1 -0.561231 -2.806155 0.205796 0 0 0
0 1000000 1 0.561231 -2.806155 0.205796 0 0 0
0 1000000 1 1.683693 -2.806155 0.269550 0 0 0
0 1000000 1 2.806155 -2.806155 0.397679 0 0 0
0 1000000 1 -2.806155 -1.683693 0.269550 0 0 0
0 1000000 1 -1.683693 -1.683693 0.142247 0 0 0
0 1000000 1 -0.561231 -1.683693 0.078901 0 0 0
0 1000000 1 0.561231 -1.683693 0.078901 0 0 0
0 1000000 1 1.683693 -1.683693 0.142247 0 0 0
0 1000000 1 2.806155 -1.683693 0.269550 0 0 0
0 1000000 1 -2.806155 -0.561231 0.205796 0 0 0
0 1000000 1 -1.683693 -0.561231 0.078901 0 0 0
0 1000000 1 -0.561231 -0.561231 0.015755 0 0 0
0 1000000 1 0.561231 -0.561231 0.015755 0 0 0
0 1000000 1 1.683693 -0.561231 0.078901 0 0 0
0 1000000 1 2.806155 -0.561231 0.205796 0 0 0
0 1000000 1 -2.806155 0.561231 0.205796 0 0 0
0 1000000 1 -1.683693 0.561231 0.078901 0 0 0
0 1000000 1 -0.561231 0.561231 0.015755 0 0 0
0 1000000 1 0.561231 0.561231 0.015755 0 0 0
0 1000000 1 1.683693 0.561231 0.078901 0 0 0
0 1000000 1 2.806155 0.561231 0.205796 0 0 0
0 1000000 1 -2.806155 1.683693 0.269550 0 0 0
0 1000000 1 -1.683693 1.683693 0.142247 0 0 0
0 1000000 1 -0.561231 1.683693 0.078901 0 0 0
0 1000000 1 0.561231 1.683693 0.078901 0 0 0
0 1000000 1 1.683693 1.683693 0.142247 0 0 0
0 1000000 1 2.806155 1.683693 0.269550 0 0 0
0 1000000 1 -2.806155 2.806155 0.397679 0 0 0
0 1000000 1 -1.683693 2.806155 0.269550 0 0 0
0 1000000 1 -0.561231 2.806155 0.205796 0 0 0
0 1000000 1 0.561231 2.806155 0.205796 0 0 0
0 1000000 1 1.683693 2.806155 0.269550 0 0 0
0 1000000 1 2.806155 2.806155 0.397679 0 0 0

Velocities

0 0.000000 0.000000 0.000000
0 0.000000 0.000000 0.000000
0 0.000000 0.000000 0.000000
0 0.000000 0.000000 0.000000
0 0.000000 0.000000 0.000000
0 0.000000 0.000000 0.000000
0 0.000000 0.000000 0.000000
0 0.000000 0.000000 0.000000
0 0.000000 0.000000 0.000000
0 0.000000 0.000000 0.000000
0 0.000000 0.000000 0.000000
0 0.000000 0.000000 0.000000
0 0.000000 0.000000 0.000000
0 0.000000 0.000000 0.000000
0 0.000000 0.000000 0.000000
0 0.000000 0.000000 0.000000
0 0.000000 0.000000 0.000000
0 0.000000 0.000000 0.000000
0 0.000000 0.000000 0.000000
0 0.000000 0.000000 0.000000
0 0.000000 0.000000 0.000000
0 0.000000 0.000000 0.000000
0 0.000000 0.000000 0.000000
0 0.000000 0.000000 0.000000
0 0.000000 0.000000 0.000000
0 0.000000 0.000000 0.000000
0 0.000000 0.000000 0.000000
0 0.000000 0.000000 0.000000
0 0.000000 0.000000 0.000000
0 0.000000 0.000000 0.000000
0 0.000000 0.000000 0.000000
0 0.000000 0.000000 0.000000
0 0.000000 0.000000 0.000000
0 0.000000 0.000000 0.000000
0 0.000000 0.000000 0.000000
0 0.000000 0.000000 0.000000
